CC = gcc
SRC = main.c school.c
OBJ = $(SRC:%.c=%.o)
NAME = school
CFLAGS = -Wall -Werror -Wextra -pedantic

#.PHONY target prevents 'make' from confusing the phony target with a file name
.PHONY: all clean oclean fclean re

# Compile the C program
all: m.h $(OBJ)
	$(CC) $(OBJ) -o $(NAME)

# Deletes all Emacs and Vim temporary files along with the executable
clean:
	$(RM) *~ $(NAME)

# Deletes the object files
oclean:
	$(RM) $(OBJ)

# Deletes all Emacs and Vim temporary files, the executable, and the object files
fclean: clean oclean

# Forces recompilation of all source files
re: oclean all
