CC = gcc
SRC = main.c school.c
OBJ = $(SRC:%.c=%.o)
NAME = school
RM = rm -f
CFLAGS = -Wall -Werror -Wextra -pedantic

# Compile the C program
all: $(OBJ)
	$(CC) $(OBJ) -o $(NAME)

# Deletes all Emacs and Vim temporary files along with the executable
clean:
	$(RM) *~ $(NAME)

# Deletes the object files
oclean:
	$(RM) $(OBJ)

# Deletes all Emacs and Vim temporary files, the executable, and the object files
fclean: clean oclean

# Forces recompilation of all source files
re: oclean all
